LAMMPS data file

200 atoms
1 atom types
190 bonds
1 bond types

# simulation box boundaries
0 20 xlo xhi
0 20 ylo yhi
0 20 zlo zhi

Masses

1 1

Atoms  # atom-ID; molID; atom-type; (x0,y0,z0) = original coordinates of atoms;

1	1	1	0.96500	1.00000	10.00000
2	1	1	1.93000	1.00000	10.00000
3	1	1	2.89500	1.00000	10.00000
4	1	1	3.86000	1.00000	10.00000
5	1	1	4.82500	1.00000	10.00000
6	1	1	5.79000	1.00000	10.00000
7	1	1	6.75500	1.00000	10.00000
8	1	1	7.72000	1.00000	10.00000
9	1	1	8.68500	1.00000	10.00000
10	1	1	9.65000	1.00000	10.00000
11	1	1	10.61500	1.00000	10.00000
12	1	1	11.58000	1.00000	10.00000
13	1	1	12.54500	1.00000	10.00000
14	1	1	13.51000	1.00000	10.00000
15	1	1	14.47500	1.00000	10.00000
16	1	1	15.44000	1.00000	10.00000
17	1	1	16.40500	1.00000	10.00000
18	1	1	17.37000	1.00000	10.00000
19	1	1	18.33500	1.00000	10.00000
20	1	1	19.3000	1.00000	10.00000
21	2	1	0.96500	3.00000	10.00000
22	2	1	1.93000	3.00000	10.00000
23	2	1	2.89500	3.00000	10.00000
24	2	1	3.86000	3.00000	10.00000
25	2	1	4.82500	3.00000	10.00000
26	2	1	5.79000	3.00000	10.00000
27	2	1	6.75500	3.00000	10.00000
28	2	1	7.72000	3.00000	10.00000
29	2	1	8.68500	3.00000	10.00000
30	2	1	9.65000	3.00000	10.00000
31	2	1	10.61500	3.00000	10.00000
32	2	1	11.58000	3.00000	10.00000
33	2	1	12.54500	3.00000	10.00000
34	2	1	13.51000	3.00000	10.00000
35	2	1	14.47500	3.00000	10.00000
36	2	1	15.44000	3.00000	10.00000
37	2	1	16.40500	3.00000	10.00000
38	2	1	17.37000	3.00000	10.00000
39	2	1	18.33500	3.00000	10.00000
40	2	1	19.3000	3.00000	10.00000
41	3	1	0.96500	5.00000	10.00000
42	3	1	1.93000	5.00000	10.00000
43	3	1	2.89500	5.00000	10.00000
44	3	1	3.86000	5.00000	10.00000
45	3	1	4.82500	5.00000	10.00000
46	3	1	5.79000	5.00000	10.00000
47	3	1	6.75500	5.00000	10.00000
48	3	1	7.72000	5.00000	10.00000
49	3	1	8.68500	5.00000	10.00000
50	3	1	9.65000	5.00000	10.00000
51	3	1	10.61500	5.00000	10.00000
52	3	1	11.58000	5.00000	10.00000
53	3	1	12.54500	5.00000	10.00000
54	3	1	13.51000	5.00000	10.00000
55	3	1	14.47500	5.00000	10.00000
56	3	1	15.44000	5.00000	10.00000
57	3	1	16.40500	5.00000	10.00000
58	3	1	17.37000	5.00000	10.00000
59	3	1	18.33500	5.00000	10.00000
60	3	1	19.3000	5.00000	10.00000
61	4	1	0.96500	7.00000	10.00000
62	4	1	1.93000	7.00000	10.00000
63	4	1	2.89500	7.00000	10.00000
64	4	1	3.86000	7.00000	10.00000
65	4	1	4.82500	7.00000	10.00000
66	4	1	5.79000	7.00000	10.00000
67	4	1	6.75500	7.00000	10.00000
68	4	1	7.72000	7.00000	10.00000
69	4	1	8.68500	7.00000	10.00000
70	4	1	9.65000	7.00000	10.00000
71	4	1	10.61500	7.00000	10.00000
72	4	1	11.58000	7.00000	10.00000
73	4	1	12.54500	7.00000	10.00000
74	4	1	13.51000	7.00000	10.00000
75	4	1	14.47500	7.00000	10.00000
76	4	1	15.44000	7.00000	10.00000
77	4	1	16.40500	7.00000	10.00000
78	4	1	17.37000	7.00000	10.00000
79	4	1	18.33500	7.00000	10.00000
80	4	1	19.3000	7.00000	10.00000
81	5	1	0.96500	9.00000	10.00000
82	5	1	1.93000	9.00000	10.00000
83	5	1	2.89500	9.00000	10.00000
84	5	1	3.86000	9.00000	10.00000
85	5	1	4.82500	9.00000	10.00000
86	5	1	5.79000	9.00000	10.00000
87	5	1	6.75500	9.00000	10.00000
88	5	1	7.72000	9.00000	10.00000
89	5	1	8.68500	9.00000	10.00000
90	5	1	9.65000	9.00000	10.00000
91	5	1	10.61500	9.00000	10.00000
92	5	1	11.58000	9.00000	10.00000
93	5	1	12.54500	9.00000	10.00000
94	5	1	13.51000	9.00000	10.00000
95	5	1	14.47500	9.00000	10.00000
96	5	1	15.44000	9.00000	10.00000
97	5	1	16.40500	9.00000	10.00000
98	5	1	17.37000	9.00000	10.00000
99	5	1	18.33500	9.00000	10.00000
100	5	1	19.3000	9.00000	10.00000
101	6	1	0.96500	11.00000	10.00000
102	6	1	1.93000	11.00000	10.00000
103	6	1	2.89500	11.00000	10.00000
104	6	1	3.86000	11.00000	10.00000
105	6	1	4.82500	11.00000	10.00000
106	6	1	5.79000	11.00000	10.00000
107	6	1	6.75500	11.00000	10.00000
108	6	1	7.72000	11.00000	10.00000
109	6	1	8.68500	11.00000	10.00000
110	6	1	9.65000	11.00000	10.00000
111	6	1	10.61500	11.00000	10.00000
112	6	1	11.58000	11.00000	10.00000
113	6	1	12.54500	11.00000	10.00000
114	6	1	13.51000	11.00000	10.00000
115	6	1	14.47500	11.00000	10.00000
116	6	1	15.44000	11.00000	10.00000
117	6	1	16.40500	11.00000	10.00000
118	6	1	17.37000	11.00000	10.00000
119	6	1	18.33500	11.00000	10.00000
120	6	1	19.3000	11.00000	10.00000
121	7	1	0.96500	13.00000	10.00000
122	7	1	1.93000	13.00000	10.00000
123	7	1	2.89500	13.00000	10.00000
124	7	1	3.86000	13.00000	10.00000
125	7	1	4.82500	13.00000	10.00000
126	7	1	5.79000	13.00000	10.00000
127	7	1	6.75500	13.00000	10.00000
128	7	1	7.72000	13.00000	10.00000
129	7	1	8.68500	13.00000	10.00000
130	7	1	9.65000	13.00000	10.00000
131	7	1	10.61500	13.00000	10.00000
132	7	1	11.58000	13.00000	10.00000
133	7	1	12.54500	13.00000	10.00000
134	7	1	13.51000	13.00000	10.00000
135	7	1	14.47500	13.00000	10.00000
136	7	1	15.44000	13.00000	10.00000
137	7	1	16.40500	13.00000	10.00000
138	7	1	17.37000	13.00000	10.00000
139	7	1	18.33500	13.00000	10.00000
140	7	1	19.3000	13.00000	10.00000
141	8	1	0.96500	14.00000	10.00000
142	8	1	1.93000	14.00000	10.00000
143	8	1	2.89500	14.00000	10.00000
144	8	1	3.86000	14.00000	10.00000
145	8	1	4.82500	14.00000	10.00000
146	8	1	5.79000	14.00000	10.00000
147	8	1	6.75500	14.00000	10.00000
148	8	1	7.72000	14.00000	10.00000
149	8	1	8.68500	14.00000	10.00000
150	8	1	9.65000	14.00000	10.00000
151	8	1	10.61500	14.00000	10.00000
152	8	1	11.58000	14.00000	10.00000
153	8	1	12.54500	14.00000	10.00000
154	8	1	13.51000	14.00000	10.00000
155	8	1	14.47500	14.00000	10.00000
156	8	1	15.44000	14.00000	10.00000
157	8	1	16.40500	14.00000	10.00000
158	8	1	17.37000	14.00000	10.00000
159	8	1	18.33500	14.00000	10.00000
160	8	1	19.3000	14.00000	10.00000
161	9	1	0.96500	16.00000	10.00000
162	9	1	1.93000	16.00000	10.00000
163	9	1	2.89500	16.00000	10.00000
164	9	1	3.86000	16.00000	10.00000
165	9	1	4.82500	16.00000	10.00000
166	9	1	5.79000	16.00000	10.00000
167	9	1	6.75500	16.00000	10.00000
168	9	1	7.72000	16.00000	10.00000
169	9	1	8.68500	16.00000	10.00000
170	9	1	9.65000	16.00000	10.00000
171	9	1	10.61500	16.00000	10.00000
172	9	1	11.58000	16.00000	10.00000
173	9	1	12.54500	16.00000	10.00000
174	9	1	13.51000	16.00000	10.00000
175	9	1	14.47500	16.00000	10.00000
176	9	1	15.44000	16.00000	10.00000
177	9	1	16.40500	16.00000	10.00000
178	9	1	17.37000	16.00000	10.00000
179	9	1	18.33500	16.00000	10.00000
180	9	1	19.3000	16.00000	10.00000
181	10	1	0.96500	18.00000	10.00000
182	10	1	1.93000	18.00000	10.00000
183	10	1	2.89500	18.00000	10.00000
184	10	1	3.86000	18.00000	10.00000
185	10	1	4.82500	18.00000	10.00000
186	10	1	5.79000	18.00000	10.00000
187	10	1	6.75500	18.00000	10.00000
188	10	1	7.72000	18.00000	10.00000
189	10	1	8.68500	18.00000	10.00000
190	10	1	9.65000	18.00000	10.00000
191	10	1	10.61500	18.00000	10.00000
192	10	1	11.58000	18.00000	10.00000
193	10	1	12.54500	18.00000	10.00000
194	10	1	13.51000	18.00000	10.00000
195	10	1	14.47500	18.00000	10.00000
196	10	1	15.44000	18.00000	10.00000
197	10	1	16.40500	18.00000	10.00000
198	10	1	17.37000	18.00000	10.00000
199	10	1	18.33500	18.00000	10.00000
200	10	1	19.3000	18.00000	10.00000


Bonds

1	1	1	2
2	1	2	3
3	1	3	4
4	1	4	5
5	1	5	6
6	1	6	7
7	1	7	8
8	1	8	9
9	1	9	10
10	1	10	11
11	1	11	12
12	1	12	13
13	1	13	14
14	1	14	15
15	1	15	16
16	1	16	17
17	1	17	18
18	1	18	19
19	1	19	20
20	1	21	22
21	1	22	23
22	1	23	24
23	1	24	25
24	1	25	26
25	1	26	27
26	1	27	28
27	1	28	29
28	1	29	30
29	1	30	31
30	1	31	32
31	1	32	33
32	1	33	34
33	1	34	35
34	1	35	36
35	1	36	37
36	1	37	38
37	1	38	39
38	1	39	40
39	1	41	42
40	1	42	43
41	1	43	44
42	1	44	45
43	1	45	46
44	1	46	47
45	1	47	48
46	1	48	49
47	1	49	50
48	1	50	51
49	1	51	52
50	1	52	53
51	1	53	54
52	1	54	55
53	1	55	56
54	1	56	57
55	1	57	58
56	1	58	59
57	1	59	60
58	1	61	62
59	1	62	63
60	1	63	64
61	1	64	65
62	1	65	66
63	1	66	67
64	1	67	68
65	1	68	69
66	1	69	70
67	1	70	71
68	1	71	72
69	1	72	73
70	1	73	74
71	1	74	75
72	1	75	76
73	1	76	77
74	1	77	78
75	1	78	79
76	1	79	80
77	1	81	82
78	1	82	83
79	1	83	84
80	1	84	85
81	1	85	86
82	1	86	87
83	1	87	88
84	1	88	89
85	1	89	90
86	1	90	91
87	1	91	92
88	1	92	93
89	1	93	94
90	1	94	95
91	1	95	96
92	1	96	97
93	1	97	98
94	1	98	99
95	1	99	100
96	1	101	102
97	1	102	103
98	1	103	104
99	1	104	105
100	1	105	106
101	1	106	107
102	1	107	108
103	1	108	109
104	1	109	110
105	1	110	111
106	1	111	112
107	1	112	113
108	1	113	114
109	1	114	115
110	1	115	116
111	1	116	117
112	1	117	118
113	1	118	119
114	1	119	120
115	1	121	122
116	1	122	123
117	1	123	124
118	1	124	125
119	1	125	126
120	1	126	127
121	1	127	128
122	1	128	129
123	1	129	130
124	1	130	131
125	1	131	132
126	1	132	133
127	1	133	134
128	1	134	135
129	1	135	136
130	1	136	137
131	1	137	138
132	1	138	139
133	1	139	140
134	1	141	142
135	1	142	143
136	1	143	144
137	1	144	145
138	1	145	146
139	1	146	147
140	1	147	148
141	1	148	149
142	1	149	150
143	1	150	151
144	1	151	152
145	1	152	153
146	1	153	154
147	1	154	155
148	1	155	156
149	1	156	157
150	1	157	158
151	1	158	159
152	1	159	160
153	1	161	162
154	1	162	163
155	1	163	164
156	1	164	165
157	1	165	166
158	1	166	167
159	1	167	168
160	1	168	169
161	1	169	170
162	1	170	171
163	1	171	172
164	1	172	173
165	1	173	174
166	1	174	175
167	1	175	176
168	1	176	177
169	1	177	178
170	1	178	179
171	1	179	180
172	1	181	182
173	1	182	183
174	1	183	184
175	1	184	185
176	1	185	186
177	1	186	187
178	1	187	188
179	1	188	189
180	1	189	190
181	1	190	191
182	1	191	192
183	1	192	193
184	1	193	194
185	1	194	195
186	1	195	196
187	1	196	197
188	1	197	198
189	1	198	199
190	1	199	200
